<VTKFile type="UnstructuredGrid" version="0.1" byte_order="LittleEndian">
<UnstructuredGrid>
<Piece NumberOfPoints="286" NumberOfCells="250">
<Points>
<DataArray type="Float32" NumberOfComponents="3" format="ascii">
0.000000e+00 0.000000e+00 0.000000e+00 
0.000000e+00 2.000000e-01 0.000000e+00 
0.000000e+00 4.000000e-01 0.000000e+00 
0.000000e+00 6.000000e-01 0.000000e+00 
0.000000e+00 8.000000e-01 0.000000e+00 
0.000000e+00 1.000000e+00 0.000000e+00 
0.000000e+00 1.200000e+00 0.000000e+00 
0.000000e+00 1.400000e+00 0.000000e+00 
0.000000e+00 1.600000e+00 0.000000e+00 
0.000000e+00 1.800000e+00 0.000000e+00 
0.000000e+00 2.000000e+00 0.000000e+00 
2.400000e-01 0.000000e+00 0.000000e+00 
2.400000e-01 2.000000e-01 0.000000e+00 
2.400000e-01 4.000000e-01 0.000000e+00 
2.400000e-01 6.000000e-01 0.000000e+00 
2.400000e-01 8.000000e-01 0.000000e+00 
2.400000e-01 1.000000e+00 0.000000e+00 
2.400000e-01 1.200000e+00 0.000000e+00 
2.400000e-01 1.400000e+00 0.000000e+00 
2.400000e-01 1.600000e+00 0.000000e+00 
2.400000e-01 1.800000e+00 0.000000e+00 
2.400000e-01 2.000000e+00 0.000000e+00 
4.800000e-01 0.000000e+00 0.000000e+00 
4.800000e-01 2.000000e-01 0.000000e+00 
4.800000e-01 4.000000e-01 0.000000e+00 
4.800000e-01 6.000000e-01 0.000000e+00 
4.800000e-01 8.000000e-01 0.000000e+00 
4.800000e-01 1.000000e+00 0.000000e+00 
4.800000e-01 1.200000e+00 0.000000e+00 
4.800000e-01 1.400000e+00 0.000000e+00 
4.800000e-01 1.600000e+00 0.000000e+00 
4.800000e-01 1.800000e+00 0.000000e+00 
4.800000e-01 2.000000e+00 0.000000e+00 
7.200000e-01 0.000000e+00 0.000000e+00 
7.200000e-01 2.000000e-01 0.000000e+00 
7.200000e-01 4.000000e-01 0.000000e+00 
7.200000e-01 6.000000e-01 0.000000e+00 
7.200000e-01 8.000000e-01 0.000000e+00 
7.200000e-01 1.000000e+00 0.000000e+00 
7.200000e-01 1.200000e+00 0.000000e+00 
7.200000e-01 1.400000e+00 0.000000e+00 
7.200000e-01 1.600000e+00 0.000000e+00 
7.200000e-01 1.800000e+00 0.000000e+00 
7.200000e-01 2.000000e+00 0.000000e+00 
9.600000e-01 0.000000e+00 0.000000e+00 
9.600000e-01 2.000000e-01 0.000000e+00 
9.600000e-01 4.000000e-01 0.000000e+00 
9.600000e-01 6.000000e-01 0.000000e+00 
9.600000e-01 8.000000e-01 0.000000e+00 
9.600000e-01 1.000000e+00 0.000000e+00 
9.600000e-01 1.200000e+00 0.000000e+00 
9.600000e-01 1.400000e+00 0.000000e+00 
9.600000e-01 1.600000e+00 0.000000e+00 
9.600000e-01 1.800000e+00 0.000000e+00 
9.600000e-01 2.000000e+00 0.000000e+00 
1.200000e+00 0.000000e+00 0.000000e+00 
1.200000e+00 2.000000e-01 0.000000e+00 
1.200000e+00 4.000000e-01 0.000000e+00 
1.200000e+00 6.000000e-01 0.000000e+00 
1.200000e+00 8.000000e-01 0.000000e+00 
1.200000e+00 1.000000e+00 0.000000e+00 
1.200000e+00 1.200000e+00 0.000000e+00 
1.200000e+00 1.400000e+00 0.000000e+00 
1.200000e+00 1.600000e+00 0.000000e+00 
1.200000e+00 1.800000e+00 0.000000e+00 
1.200000e+00 2.000000e+00 0.000000e+00 
1.440000e+00 0.000000e+00 0.000000e+00 
1.440000e+00 2.000000e-01 0.000000e+00 
1.440000e+00 4.000000e-01 0.000000e+00 
1.440000e+00 6.000000e-01 0.000000e+00 
1.440000e+00 8.000000e-01 0.000000e+00 
1.440000e+00 1.000000e+00 0.000000e+00 
1.440000e+00 1.200000e+00 0.000000e+00 
1.440000e+00 1.400000e+00 0.000000e+00 
1.440000e+00 1.600000e+00 0.000000e+00 
1.440000e+00 1.800000e+00 0.000000e+00 
1.440000e+00 2.000000e+00 0.000000e+00 
1.680000e+00 0.000000e+00 0.000000e+00 
1.680000e+00 2.000000e-01 0.000000e+00 
1.680000e+00 4.000000e-01 0.000000e+00 
1.680000e+00 6.000000e-01 0.000000e+00 
1.680000e+00 8.000000e-01 0.000000e+00 
1.680000e+00 1.000000e+00 0.000000e+00 
1.680000e+00 1.200000e+00 0.000000e+00 
1.680000e+00 1.400000e+00 0.000000e+00 
1.680000e+00 1.600000e+00 0.000000e+00 
1.680000e+00 1.800000e+00 0.000000e+00 
1.680000e+00 2.000000e+00 0.000000e+00 
1.920000e+00 0.000000e+00 0.000000e+00 
1.920000e+00 2.000000e-01 0.000000e+00 
1.920000e+00 4.000000e-01 0.000000e+00 
1.920000e+00 6.000000e-01 0.000000e+00 
1.920000e+00 8.000000e-01 0.000000e+00 
1.920000e+00 1.000000e+00 0.000000e+00 
1.920000e+00 1.200000e+00 0.000000e+00 
1.920000e+00 1.400000e+00 0.000000e+00 
1.920000e+00 1.600000e+00 0.000000e+00 
1.920000e+00 1.800000e+00 0.000000e+00 
1.920000e+00 2.000000e+00 0.000000e+00 
2.160000e+00 0.000000e+00 0.000000e+00 
2.160000e+00 2.000000e-01 0.000000e+00 
2.160000e+00 4.000000e-01 0.000000e+00 
2.160000e+00 6.000000e-01 0.000000e+00 
2.160000e+00 8.000000e-01 0.000000e+00 
2.160000e+00 1.000000e+00 0.000000e+00 
2.160000e+00 1.200000e+00 0.000000e+00 
2.160000e+00 1.400000e+00 0.000000e+00 
2.160000e+00 1.600000e+00 0.000000e+00 
2.160000e+00 1.800000e+00 0.000000e+00 
2.160000e+00 2.000000e+00 0.000000e+00 
2.400000e+00 0.000000e+00 0.000000e+00 
2.400000e+00 2.000000e-01 0.000000e+00 
2.400000e+00 4.000000e-01 0.000000e+00 
2.400000e+00 6.000000e-01 0.000000e+00 
2.400000e+00 8.000000e-01 0.000000e+00 
2.400000e+00 1.000000e+00 0.000000e+00 
2.400000e+00 1.200000e+00 0.000000e+00 
2.400000e+00 1.400000e+00 0.000000e+00 
2.400000e+00 1.600000e+00 0.000000e+00 
2.400000e+00 1.800000e+00 0.000000e+00 
2.400000e+00 2.000000e+00 0.000000e+00 
2.640000e+00 0.000000e+00 0.000000e+00 
2.640000e+00 2.000000e-01 0.000000e+00 
2.640000e+00 4.000000e-01 0.000000e+00 
2.640000e+00 6.000000e-01 0.000000e+00 
2.640000e+00 8.000000e-01 0.000000e+00 
2.640000e+00 1.000000e+00 0.000000e+00 
2.640000e+00 1.200000e+00 0.000000e+00 
2.640000e+00 1.400000e+00 0.000000e+00 
2.640000e+00 1.600000e+00 0.000000e+00 
2.640000e+00 1.800000e+00 0.000000e+00 
2.640000e+00 2.000000e+00 0.000000e+00 
2.880000e+00 0.000000e+00 0.000000e+00 
2.880000e+00 2.000000e-01 0.000000e+00 
2.880000e+00 4.000000e-01 0.000000e+00 
2.880000e+00 6.000000e-01 0.000000e+00 
2.880000e+00 8.000000e-01 0.000000e+00 
2.880000e+00 1.000000e+00 0.000000e+00 
2.880000e+00 1.200000e+00 0.000000e+00 
2.880000e+00 1.400000e+00 0.000000e+00 
2.880000e+00 1.600000e+00 0.000000e+00 
2.880000e+00 1.800000e+00 0.000000e+00 
2.880000e+00 2.000000e+00 0.000000e+00 
3.120000e+00 0.000000e+00 0.000000e+00 
3.120000e+00 2.000000e-01 0.000000e+00 
3.120000e+00 4.000000e-01 0.000000e+00 
3.120000e+00 6.000000e-01 0.000000e+00 
3.120000e+00 8.000000e-01 0.000000e+00 
3.120000e+00 1.000000e+00 0.000000e+00 
3.120000e+00 1.200000e+00 0.000000e+00 
3.120000e+00 1.400000e+00 0.000000e+00 
3.120000e+00 1.600000e+00 0.000000e+00 
3.120000e+00 1.800000e+00 0.000000e+00 
3.120000e+00 2.000000e+00 0.000000e+00 
3.360000e+00 0.000000e+00 0.000000e+00 
3.360000e+00 2.000000e-01 0.000000e+00 
3.360000e+00 4.000000e-01 0.000000e+00 
3.360000e+00 6.000000e-01 0.000000e+00 
3.360000e+00 8.000000e-01 0.000000e+00 
3.360000e+00 1.000000e+00 0.000000e+00 
3.360000e+00 1.200000e+00 0.000000e+00 
3.360000e+00 1.400000e+00 0.000000e+00 
3.360000e+00 1.600000e+00 0.000000e+00 
3.360000e+00 1.800000e+00 0.000000e+00 
3.360000e+00 2.000000e+00 0.000000e+00 
3.600000e+00 0.000000e+00 0.000000e+00 
3.600000e+00 2.000000e-01 0.000000e+00 
3.600000e+00 4.000000e-01 0.000000e+00 
3.600000e+00 6.000000e-01 0.000000e+00 
3.600000e+00 8.000000e-01 0.000000e+00 
3.600000e+00 1.000000e+00 0.000000e+00 
3.600000e+00 1.200000e+00 0.000000e+00 
3.600000e+00 1.400000e+00 0.000000e+00 
3.600000e+00 1.600000e+00 0.000000e+00 
3.600000e+00 1.800000e+00 0.000000e+00 
3.600000e+00 2.000000e+00 0.000000e+00 
3.840000e+00 0.000000e+00 0.000000e+00 
3.840000e+00 2.000000e-01 0.000000e+00 
3.840000e+00 4.000000e-01 0.000000e+00 
3.840000e+00 6.000000e-01 0.000000e+00 
3.840000e+00 8.000000e-01 0.000000e+00 
3.840000e+00 1.000000e+00 0.000000e+00 
3.840000e+00 1.200000e+00 0.000000e+00 
3.840000e+00 1.400000e+00 0.000000e+00 
3.840000e+00 1.600000e+00 0.000000e+00 
3.840000e+00 1.800000e+00 0.000000e+00 
3.840000e+00 2.000000e+00 0.000000e+00 
4.080000e+00 0.000000e+00 0.000000e+00 
4.080000e+00 2.000000e-01 0.000000e+00 
4.080000e+00 4.000000e-01 0.000000e+00 
4.080000e+00 6.000000e-01 0.000000e+00 
4.080000e+00 8.000000e-01 0.000000e+00 
4.080000e+00 1.000000e+00 0.000000e+00 
4.080000e+00 1.200000e+00 0.000000e+00 
4.080000e+00 1.400000e+00 0.000000e+00 
4.080000e+00 1.600000e+00 0.000000e+00 
4.080000e+00 1.800000e+00 0.000000e+00 
4.080000e+00 2.000000e+00 0.000000e+00 
4.320000e+00 0.000000e+00 0.000000e+00 
4.320000e+00 2.000000e-01 0.000000e+00 
4.320000e+00 4.000000e-01 0.000000e+00 
4.320000e+00 6.000000e-01 0.000000e+00 
4.320000e+00 8.000000e-01 0.000000e+00 
4.320000e+00 1.000000e+00 0.000000e+00 
4.320000e+00 1.200000e+00 0.000000e+00 
4.320000e+00 1.400000e+00 0.000000e+00 
4.320000e+00 1.600000e+00 0.000000e+00 
4.320000e+00 1.800000e+00 0.000000e+00 
4.320000e+00 2.000000e+00 0.000000e+00 
4.560000e+00 0.000000e+00 0.000000e+00 
4.560000e+00 2.000000e-01 0.000000e+00 
4.560000e+00 4.000000e-01 0.000000e+00 
4.560000e+00 6.000000e-01 0.000000e+00 
4.560000e+00 8.000000e-01 0.000000e+00 
4.560000e+00 1.000000e+00 0.000000e+00 
4.560000e+00 1.200000e+00 0.000000e+00 
4.560000e+00 1.400000e+00 0.000000e+00 
4.560000e+00 1.600000e+00 0.000000e+00 
4.560000e+00 1.800000e+00 0.000000e+00 
4.560000e+00 2.000000e+00 0.000000e+00 
4.800000e+00 0.000000e+00 0.000000e+00 
4.800000e+00 2.000000e-01 0.000000e+00 
4.800000e+00 4.000000e-01 0.000000e+00 
4.800000e+00 6.000000e-01 0.000000e+00 
4.800000e+00 8.000000e-01 0.000000e+00 
4.800000e+00 1.000000e+00 0.000000e+00 
4.800000e+00 1.200000e+00 0.000000e+00 
4.800000e+00 1.400000e+00 0.000000e+00 
4.800000e+00 1.600000e+00 0.000000e+00 
4.800000e+00 1.800000e+00 0.000000e+00 
4.800000e+00 2.000000e+00 0.000000e+00 
5.040000e+00 0.000000e+00 0.000000e+00 
5.040000e+00 2.000000e-01 0.000000e+00 
5.040000e+00 4.000000e-01 0.000000e+00 
5.040000e+00 6.000000e-01 0.000000e+00 
5.040000e+00 8.000000e-01 0.000000e+00 
5.040000e+00 1.000000e+00 0.000000e+00 
5.040000e+00 1.200000e+00 0.000000e+00 
5.040000e+00 1.400000e+00 0.000000e+00 
5.040000e+00 1.600000e+00 0.000000e+00 
5.040000e+00 1.800000e+00 0.000000e+00 
5.040000e+00 2.000000e+00 0.000000e+00 
5.280000e+00 0.000000e+00 0.000000e+00 
5.280000e+00 2.000000e-01 0.000000e+00 
5.280000e+00 4.000000e-01 0.000000e+00 
5.280000e+00 6.000000e-01 0.000000e+00 
5.280000e+00 8.000000e-01 0.000000e+00 
5.280000e+00 1.000000e+00 0.000000e+00 
5.280000e+00 1.200000e+00 0.000000e+00 
5.280000e+00 1.400000e+00 0.000000e+00 
5.280000e+00 1.600000e+00 0.000000e+00 
5.280000e+00 1.800000e+00 0.000000e+00 
5.280000e+00 2.000000e+00 0.000000e+00 
5.520000e+00 0.000000e+00 0.000000e+00 
5.520000e+00 2.000000e-01 0.000000e+00 
5.520000e+00 4.000000e-01 0.000000e+00 
5.520000e+00 6.000000e-01 0.000000e+00 
5.520000e+00 8.000000e-01 0.000000e+00 
5.520000e+00 1.000000e+00 0.000000e+00 
5.520000e+00 1.200000e+00 0.000000e+00 
5.520000e+00 1.400000e+00 0.000000e+00 
5.520000e+00 1.600000e+00 0.000000e+00 
5.520000e+00 1.800000e+00 0.000000e+00 
5.520000e+00 2.000000e+00 0.000000e+00 
5.760000e+00 0.000000e+00 0.000000e+00 
5.760000e+00 2.000000e-01 0.000000e+00 
5.760000e+00 4.000000e-01 0.000000e+00 
5.760000e+00 6.000000e-01 0.000000e+00 
5.760000e+00 8.000000e-01 0.000000e+00 
5.760000e+00 1.000000e+00 0.000000e+00 
5.760000e+00 1.200000e+00 0.000000e+00 
5.760000e+00 1.400000e+00 0.000000e+00 
5.760000e+00 1.600000e+00 0.000000e+00 
5.760000e+00 1.800000e+00 0.000000e+00 
5.760000e+00 2.000000e+00 0.000000e+00 
6.000000e+00 0.000000e+00 0.000000e+00 
6.000000e+00 2.000000e-01 0.000000e+00 
6.000000e+00 4.000000e-01 0.000000e+00 
6.000000e+00 6.000000e-01 0.000000e+00 
6.000000e+00 8.000000e-01 0.000000e+00 
6.000000e+00 1.000000e+00 0.000000e+00 
6.000000e+00 1.200000e+00 0.000000e+00 
6.000000e+00 1.400000e+00 0.000000e+00 
6.000000e+00 1.600000e+00 0.000000e+00 
6.000000e+00 1.800000e+00 0.000000e+00 
6.000000e+00 2.000000e+00 0.000000e+00 
</DataArray>
</Points>
<Cells>
<DataArray type="Int32" Name="connectivity" format="ascii">
0 11 12 1 
1 12 13 2 
2 13 14 3 
3 14 15 4 
4 15 16 5 
5 16 17 6 
6 17 18 7 
7 18 19 8 
8 19 20 9 
9 20 21 10 
11 22 23 12 
12 23 24 13 
13 24 25 14 
14 25 26 15 
15 26 27 16 
16 27 28 17 
17 28 29 18 
18 29 30 19 
19 30 31 20 
20 31 32 21 
22 33 34 23 
23 34 35 24 
24 35 36 25 
25 36 37 26 
26 37 38 27 
27 38 39 28 
28 39 40 29 
29 40 41 30 
30 41 42 31 
31 42 43 32 
33 44 45 34 
34 45 46 35 
35 46 47 36 
36 47 48 37 
37 48 49 38 
38 49 50 39 
39 50 51 40 
40 51 52 41 
41 52 53 42 
42 53 54 43 
44 55 56 45 
45 56 57 46 
46 57 58 47 
47 58 59 48 
48 59 60 49 
49 60 61 50 
50 61 62 51 
51 62 63 52 
52 63 64 53 
53 64 65 54 
55 66 67 56 
56 67 68 57 
57 68 69 58 
58 69 70 59 
59 70 71 60 
60 71 72 61 
61 72 73 62 
62 73 74 63 
63 74 75 64 
64 75 76 65 
66 77 78 67 
67 78 79 68 
68 79 80 69 
69 80 81 70 
70 81 82 71 
71 82 83 72 
72 83 84 73 
73 84 85 74 
74 85 86 75 
75 86 87 76 
77 88 89 78 
78 89 90 79 
79 90 91 80 
80 91 92 81 
81 92 93 82 
82 93 94 83 
83 94 95 84 
84 95 96 85 
85 96 97 86 
86 97 98 87 
88 99 100 89 
89 100 101 90 
90 101 102 91 
91 102 103 92 
92 103 104 93 
93 104 105 94 
94 105 106 95 
95 106 107 96 
96 107 108 97 
97 108 109 98 
99 110 111 100 
100 111 112 101 
101 112 113 102 
102 113 114 103 
103 114 115 104 
104 115 116 105 
105 116 117 106 
106 117 118 107 
107 118 119 108 
108 119 120 109 
110 121 122 111 
111 122 123 112 
112 123 124 113 
113 124 125 114 
114 125 126 115 
115 126 127 116 
116 127 128 117 
117 128 129 118 
118 129 130 119 
119 130 131 120 
121 132 133 122 
122 133 134 123 
123 134 135 124 
124 135 136 125 
125 136 137 126 
126 137 138 127 
127 138 139 128 
128 139 140 129 
129 140 141 130 
130 141 142 131 
132 143 144 133 
133 144 145 134 
134 145 146 135 
135 146 147 136 
136 147 148 137 
137 148 149 138 
138 149 150 139 
139 150 151 140 
140 151 152 141 
141 152 153 142 
143 154 155 144 
144 155 156 145 
145 156 157 146 
146 157 158 147 
147 158 159 148 
148 159 160 149 
149 160 161 150 
150 161 162 151 
151 162 163 152 
152 163 164 153 
154 165 166 155 
155 166 167 156 
156 167 168 157 
157 168 169 158 
158 169 170 159 
159 170 171 160 
160 171 172 161 
161 172 173 162 
162 173 174 163 
163 174 175 164 
165 176 177 166 
166 177 178 167 
167 178 179 168 
168 179 180 169 
169 180 181 170 
170 181 182 171 
171 182 183 172 
172 183 184 173 
173 184 185 174 
174 185 186 175 
176 187 188 177 
177 188 189 178 
178 189 190 179 
179 190 191 180 
180 191 192 181 
181 192 193 182 
182 193 194 183 
183 194 195 184 
184 195 196 185 
185 196 197 186 
187 198 199 188 
188 199 200 189 
189 200 201 190 
190 201 202 191 
191 202 203 192 
192 203 204 193 
193 204 205 194 
194 205 206 195 
195 206 207 196 
196 207 208 197 
198 209 210 199 
199 210 211 200 
200 211 212 201 
201 212 213 202 
202 213 214 203 
203 214 215 204 
204 215 216 205 
205 216 217 206 
206 217 218 207 
207 218 219 208 
209 220 221 210 
210 221 222 211 
211 222 223 212 
212 223 224 213 
213 224 225 214 
214 225 226 215 
215 226 227 216 
216 227 228 217 
217 228 229 218 
218 229 230 219 
220 231 232 221 
221 232 233 222 
222 233 234 223 
223 234 235 224 
224 235 236 225 
225 236 237 226 
226 237 238 227 
227 238 239 228 
228 239 240 229 
229 240 241 230 
231 242 243 232 
232 243 244 233 
233 244 245 234 
234 245 246 235 
235 246 247 236 
236 247 248 237 
237 248 249 238 
238 249 250 239 
239 250 251 240 
240 251 252 241 
242 253 254 243 
243 254 255 244 
244 255 256 245 
245 256 257 246 
246 257 258 247 
247 258 259 248 
248 259 260 249 
249 260 261 250 
250 261 262 251 
251 262 263 252 
253 264 265 254 
254 265 266 255 
255 266 267 256 
256 267 268 257 
257 268 269 258 
258 269 270 259 
259 270 271 260 
260 271 272 261 
261 272 273 262 
262 273 274 263 
264 275 276 265 
265 276 277 266 
266 277 278 267 
267 278 279 268 
268 279 280 269 
269 280 281 270 
270 281 282 271 
271 282 283 272 
272 283 284 273 
273 284 285 274 
</DataArray>
<DataArray type="Int32" Name="offsets" format="ascii">
4
8
12
16
20
24
28
32
36
40
44
48
52
56
60
64
68
72
76
80
84
88
92
96
100
104
108
112
116
120
124
128
132
136
140
144
148
152
156
160
164
168
172
176
180
184
188
192
196
200
204
208
212
216
220
224
228
232
236
240
244
248
252
256
260
264
268
272
276
280
284
288
292
296
300
304
308
312
316
320
324
328
332
336
340
344
348
352
356
360
364
368
372
376
380
384
388
392
396
400
404
408
412
416
420
424
428
432
436
440
444
448
452
456
460
464
468
472
476
480
484
488
492
496
500
504
508
512
516
520
524
528
532
536
540
544
548
552
556
560
564
568
572
576
580
584
588
592
596
600
604
608
612
616
620
624
628
632
636
640
644
648
652
656
660
664
668
672
676
680
684
688
692
696
700
704
708
712
716
720
724
728
732
736
740
744
748
752
756
760
764
768
772
776
780
784
788
792
796
800
804
808
812
816
820
824
828
832
836
840
844
848
852
856
860
864
868
872
876
880
884
888
892
896
900
904
908
912
916
920
924
928
932
936
940
944
948
952
956
960
964
968
972
976
980
984
988
992
996
1000
</DataArray>
<DataArray type="UInt8" Name="types" format="ascii">
9
9
9
9
9
9
9
9
9
9
9
9
9
9
9
9
9
9
9
9
9
9
9
9
9
9
9
9
9
9
9
9
9
9
9
9
9
9
9
9
9
9
9
9
9
9
9
9
9
9
9
9
9
9
9
9
9
9
9
9
9
9
9
9
9
9
9
9
9
9
9
9
9
9
9
9
9
9
9
9
9
9
9
9
9
9
9
9
9
9
9
9
9
9
9
9
9
9
9
9
9
9
9
9
9
9
9
9
9
9
9
9
9
9
9
9
9
9
9
9
9
9
9
9
9
9
9
9
9
9
9
9
9
9
9
9
9
9
9
9
9
9
9
9
9
9
9
9
9
9
9
9
9
9
9
9
9
9
9
9
9
9
9
9
9
9
9
9
9
9
9
9
9
9
9
9
9
9
9
9
9
9
9
9
9
9
9
9
9
9
9
9
9
9
9
9
9
9
9
9
9
9
9
9
9
9
9
9
9
9
9
9
9
9
9
9
9
9
9
9
9
9
9
9
9
9
9
9
9
9
9
9
9
9
9
9
9
9
9
9
9
9
9
9
9
9
9
9
9
9
</DataArray>
</Cells>
<PointData>
<DataArray type="Float32" NumberOfComponents="1" Name="Mode1_71.10Hz" format="ascii">
-1.423944e-17
4.195726e-17
-2.026703e-17
1.962777e-17
1.956004e-17
9.396755e-18
2.618733e-17
4.379557e-18
-1.661982e-17
-5.555760e-18
1.837250e-17
-2.182388e-17
2.374872e-03
4.517275e-03
6.217495e-03
7.309104e-03
7.685246e-03
7.309104e-03
6.217495e-03
4.517275e-03
2.374872e-03
1.549819e-17
-4.069270e-18
4.712286e-03
8.963300e-03
1.233692e-02
1.450292e-02
1.524927e-02
1.450292e-02
1.233692e-02
8.963300e-03
4.712286e-03
5.221477e-18
1.646018e-17
6.975379e-03
1.326796e-02
1.826177e-02
2.146800e-02
2.257279e-02
2.146800e-02
1.826177e-02
1.326796e-02
6.975379e-03
9.163588e-18
1.576044e-17
9.128461e-03
1.736336e-02
2.389862e-02
2.809451e-02
2.954031e-02
2.809451e-02
2.389862e-02
1.736336e-02
9.128461e-03
-1.892854e-17
1.418989e-17
1.113758e-02
2.118493e-02
2.915856e-02
3.427794e-02
3.604195e-02
3.427794e-02
2.915856e-02
2.118493e-02
1.113758e-02
5.047861e-19
-3.101556e-17
1.297105e-02
2.467240e-02
3.395864e-02
3.992078e-02
4.197519e-02
3.992078e-02
3.395864e-02
2.467240e-02
1.297105e-02
6.673613e-18
-1.051549e-17
1.459996e-02
2.777077e-02
3.822318e-02
4.493404e-02
4.724644e-02
4.493404e-02
3.822318e-02
2.777077e-02
1.459996e-02
-1.646483e-17
-9.353235e-18
1.599862e-02
3.043117e-02
4.188491e-02
4.923867e-02
5.177260e-02
4.923867e-02
4.188491e-02
3.043117e-02
1.599862e-02
9.218601e-18
1.618305e-18
1.714497e-02
3.261166e-02
4.488610e-02
5.276677e-02
5.548227e-02
5.276677e-02
4.488610e-02
3.261166e-02
1.714497e-02
1.921559e-17
-1.527742e-17
1.802093e-02
3.427785e-02
4.717941e-02
5.546272e-02
5.831695e-02
5.546272e-02
4.717941e-02
3.427785e-02
1.802093e-02
-6.313525e-18
1.270089e-18
1.861270e-02
3.540346e-02
4.872867e-02
5.728399e-02
6.023195e-02
5.728399e-02
4.872867e-02
3.540346e-02
1.861270e-02
3.474557e-17
-1.598552e-17
1.891094e-02
3.597073e-02
4.950946e-02
5.820186e-02
6.119705e-02
5.820186e-02
4.950946e-02
3.597073e-02
1.891094e-02
-3.798526e-18
-3.537449e-17
1.891094e-02
3.597073e-02
4.950946e-02
5.820186e-02
6.119705e-02
5.820186e-02
4.950946e-02
3.597073e-02
1.891094e-02
-1.030047e-17
-1.084287e-17
1.861270e-02
3.540346e-02
4.872867e-02
5.728399e-02
6.023195e-02
5.728399e-02
4.872867e-02
3.540346e-02
1.861270e-02
2.285041e-17
-2.893938e-17
1.802093e-02
3.427785e-02
4.717941e-02
5.546272e-02
5.831695e-02
5.546272e-02
4.717941e-02
3.427785e-02
1.802093e-02
-7.978234e-18
1.821927e-17
1.714497e-02
3.261166e-02
4.488610e-02
5.276677e-02
5.548227e-02
5.276677e-02
4.488610e-02
3.261166e-02
1.714497e-02
1.346844e-17
-1.268055e-17
1.599862e-02
3.043117e-02
4.188491e-02
4.923867e-02
5.177260e-02
4.923867e-02
4.188491e-02
3.043117e-02
1.599862e-02
1.095861e-17
-1.214553e-17
1.459996e-02
2.777077e-02
3.822318e-02
4.493404e-02
4.724644e-02
4.493404e-02
3.822318e-02
2.777077e-02
1.459996e-02
-2.281760e-17
-1.949444e-17
1.297105e-02
2.467240e-02
3.395864e-02
3.992078e-02
4.197519e-02
3.992078e-02
3.395864e-02
2.467240e-02
1.297105e-02
3.720388e-17
-6.666818e-18
1.113758e-02
2.118493e-02
2.915856e-02
3.427794e-02
3.604195e-02
3.427794e-02
2.915856e-02
2.118493e-02
1.113758e-02
3.193945e-17
2.090163e-17
9.128461e-03
1.736336e-02
2.389862e-02
2.809451e-02
2.954031e-02
2.809451e-02
2.389862e-02
1.736336e-02
9.128461e-03
-6.375864e-18
-6.302592e-18
6.975379e-03
1.326796e-02
1.826177e-02
2.146800e-02
2.257279e-02
2.146800e-02
1.826177e-02
1.326796e-02
6.975379e-03
1.120487e-17
1.251555e-18
4.712286e-03
8.963300e-03
1.233692e-02
1.450292e-02
1.524927e-02
1.450292e-02
1.233692e-02
8.963300e-03
4.712286e-03
-2.245155e-17
-6.972349e-18
2.374872e-03
4.517275e-03
6.217495e-03
7.309104e-03
7.685246e-03
7.309104e-03
6.217495e-03
4.517275e-03
2.374872e-03
-4.167881e-18
1.391696e-17
-2.802048e-17
2.874823e-17
-3.459560e-17
3.150641e-17
-7.231769e-18
-1.335097e-17
-8.365542e-18
1.417878e-19
-2.913719e-17
3.980262e-18
</DataArray>
<DataArray type="Float32" NumberOfComponents="1" Name="Mode2_80.15Hz" format="ascii">
-2.135619e-17
7.677389e-17
-2.015581e-16
-8.760145e-17
3.452796e-17
1.762134e-17
-1.091831e-16
-1.118774e-17
-6.465937e-17
1.917774e-17
-1.000199e-16
-1.788298e-16
-4.286507e-03
-8.153417e-03
-1.122221e-02
-1.319250e-02
-1.387141e-02
-1.319250e-02
-1.122221e-02
-8.153417e-03
-4.286507e-03
5.328539e-18
1.097354e-16
-8.303668e-03
-1.579451e-02
-2.173927e-02
-2.555603e-02
-2.687120e-02
-2.555603e-02
-2.173927e-02
-1.579451e-02
-8.303668e-03
7.376224e-18
-4.371749e-17
-1.179907e-02
-2.244316e-02
-3.089034e-02
-3.631377e-02
-3.818255e-02
-3.631377e-02
-3.089034e-02
-2.244316e-02
-1.179907e-02
1.502592e-17
2.714816e-17
-1.455309e-02
-2.768161e-02
-3.810046e-02
-4.478976e-02
-4.709474e-02
-4.478976e-02
-3.810046e-02
-2.768161e-02
-1.455309e-02
8.826490e-17
4.613805e-17
-1.639269e-02
-3.118073e-02
-4.291658e-02
-5.045145e-02
-5.304779e-02
-5.045145e-02
-4.291658e-02
-3.118073e-02
-1.639269e-02
2.594143e-18
-5.571664e-17
-1.720227e-02
-3.272065e-02
-4.503609e-02
-5.294308e-02
-5.566765e-02
-5.294308e-02
-4.503609e-02
-3.272065e-02
-1.720227e-02
1.421660e-17
9.476694e-17
-1.693097e-02
-3.220461e-02
-4.432582e-02
-5.210812e-02
-5.478971e-02
-5.210812e-02
-4.432582e-02
-3.220461e-02
-1.693097e-02
-4.290747e-17
1.249333e-17
-1.559584e-02
-2.966504e-02
-4.083041e-02
-4.799901e-02
-5.046914e-02
-4.799901e-02
-4.083041e-02
-2.966504e-02
-1.559584e-02
9.514229e-17
2.056288e-17
-1.328077e-02
-2.526151e-02
-3.476947e-02
-4.087396e-02
-4.297742e-02
-4.087396e-02
-3.476947e-02
-2.526151e-02
-1.328077e-02
8.380964e-17
-4.066320e-17
-1.013122e-02
-1.927072e-02
-2.652385e-02
-3.118065e-02
-3.278527e-02
-3.118065e-02
-2.652385e-02
-1.927072e-02
-1.013122e-02
-3.400165e-17
3.227553e-18
-6.345090e-03
-1.206907e-02
-1.661165e-02
-1.952816e-02
-2.053312e-02
-1.952816e-02
-1.661165e-02
-1.206907e-02
-6.345090e-03
-2.329442e-16
-6.669534e-18
-2.160276e-03
-4.109087e-03
-5.655670e-03
-6.648637e-03
-6.990791e-03
-6.648637e-03
-5.655670e-03
-4.109087e-03
-2.160276e-03
1.917030e-17
-1.377610e-16
2.160276e-03
4.109087e-03
5.655670e-03
6.648637e-03
6.990791e-03
6.648637e-03
5.655670e-03
4.109087e-03
2.160276e-03
-3.400281e-17
3.490795e-17
6.345090e-03
1.206907e-02
1.661165e-02
1.952816e-02
2.053312e-02
1.952816e-02
1.661165e-02
1.206907e-02
6.345090e-03
-3.251637e-17
-1.098176e-16
1.013122e-02
1.927072e-02
2.652385e-02
3.118065e-02
3.278527e-02
3.118065e-02
2.652385e-02
1.927072e-02
1.013122e-02
1.819520e-17
4.664247e-17
1.328077e-02
2.526151e-02
3.476947e-02
4.087396e-02
4.297742e-02
4.087396e-02
3.476947e-02
2.526151e-02
1.328077e-02
-6.861358e-18
-1.657203e-16
1.559584e-02
2.966504e-02
4.083041e-02
4.799901e-02
5.046914e-02
4.799901e-02
4.083041e-02
2.966504e-02
1.559584e-02
-5.687158e-18
-4.431553e-17
1.693097e-02
3.220461e-02
4.432582e-02
5.210812e-02
5.478971e-02
5.210812e-02
4.432582e-02
3.220461e-02
1.693097e-02
-1.159384e-16
1.526434e-16
1.720227e-02
3.272065e-02
4.503609e-02
5.294308e-02
5.566765e-02
5.294308e-02
4.503609e-02
3.272065e-02
1.720227e-02
-8.099159e-17
-1.568349e-17
1.639269e-02
3.118073e-02
4.291658e-02
5.045145e-02
5.304779e-02
5.045145e-02
4.291658e-02
3.118073e-02
1.639269e-02
4.266769e-17
4.487773e-18
1.455309e-02
2.768161e-02
3.810046e-02
4.478976e-02
4.709474e-02
4.478976e-02
3.810046e-02
2.768161e-02
1.455309e-02
2.981351e-19
-4.017850e-17
1.179907e-02
2.244316e-02
3.089034e-02
3.631377e-02
3.818255e-02
3.631377e-02
3.089034e-02
2.244316e-02
1.179907e-02
5.990491e-17
2.155326e-18
8.303668e-03
1.579451e-02
2.173927e-02
2.555603e-02
2.687120e-02
2.555603e-02
2.173927e-02
1.579451e-02
8.303668e-03
-7.558532e-17
-2.613563e-17
4.286507e-03
8.153417e-03
1.122221e-02
1.319250e-02
1.387141e-02
1.319250e-02
1.122221e-02
8.153417e-03
4.286507e-03
-2.167997e-17
8.668149e-17
-1.252839e-17
1.158083e-16
8.719350e-18
-4.225266e-18
4.959711e-18
-4.067722e-17
-2.571425e-17
3.432998e-19
-2.962288e-16
1.102630e-17
</DataArray>
<DataArray type="Float32" NumberOfComponents="1" Name="Mode3_110.78Hz" format="ascii">
6.676769e-17
-1.537715e-16
2.209303e-16
-7.814912e-17
-7.804299e-17
-2.615451e-17
-6.096764e-17
9.696257e-18
1.243308e-16
1.939860e-17
7.482466e-17
1.478130e-16
-5.592209e-03
-1.063700e-02
-1.464056e-02
-1.721101e-02
-1.809672e-02
-1.721101e-02
-1.464056e-02
-1.063700e-02
-5.592209e-03
-5.513195e-17
-4.351732e-17
-1.039900e-02
-1.978005e-02
-2.722488e-02
-3.200475e-02
-3.365178e-02
-3.200475e-02
-2.722488e-02
-1.978005e-02
-1.039900e-02
-2.456276e-18
4.332065e-18
-1.374527e-02
-2.614504e-02
-3.598552e-02
-4.230349e-02
-4.448052e-02
-4.230349e-02
-3.598552e-02
-2.614504e-02
-1.374527e-02
-3.193895e-17
-1.028220e-16
-1.516106e-02
-2.883802e-02
-3.969210e-02
-4.666083e-02
-4.906209e-02
-4.666083e-02
-3.969210e-02
-2.883802e-02
-1.516106e-02
-4.347740e-17
4.036771e-17
-1.444753e-02
-2.748080e-02
-3.782403e-02
-4.446479e-02
-4.675304e-02
-4.446479e-02
-3.782403e-02
-2.748080e-02
-1.444753e-02
-4.827125e-18
2.784344e-16
-1.170488e-02
-2.226397e-02
-3.064370e-02
-3.602381e-02
-3.787767e-02
-3.602381e-02
-3.064370e-02
-2.226397e-02
-1.170488e-02
-2.237093e-17
-6.607963e-17
-7.318314e-03
-1.392024e-02
-1.915955e-02
-2.252339e-02
-2.368249e-02
-2.252339e-02
-1.915955e-02
-1.392024e-02
-7.318314e-03
5.601400e-17
8.041849e-17
-1.903916e-03
-3.621459e-03
-4.984507e-03
-5.859636e-03
-6.161184e-03
-5.859636e-03
-4.984507e-03
-3.621459e-03
-1.903916e-03
-1.457464e-16
-2.193593e-17
3.777882e-03
7.185950e-03
9.890601e-03
1.162709e-02
1.222545e-02
1.162709e-02
9.890601e-03
7.185950e-03
3.777882e-03
-2.035707e-16
9.706489e-17
8.929089e-03
1.698412e-02
2.337661e-02
2.748084e-02
2.889506e-02
2.748084e-02
2.337661e-02
1.698412e-02
8.929089e-03
6.242682e-17
-1.726877e-18
1.282624e-02
2.439692e-02
3.357945e-02
3.947499e-02
4.150645e-02
3.947499e-02
3.357945e-02
2.439692e-02
1.282624e-02
-1.390781e-16
4.045489e-17
1.492198e-02
2.838326e-02
3.906616e-02
4.592500e-02
4.828840e-02
4.592500e-02
3.906616e-02
2.838326e-02
1.492198e-02
-5.667671e-18
3.921733e-16
1.492198e-02
2.838326e-02
3.906616e-02
4.592500e-02
4.828840e-02
4.592500e-02
3.906616e-02
2.838326e-02
1.492198e-02
8.871938e-17
-4.992584e-18
1.282624e-02
2.439692e-02
3.357945e-02
3.947499e-02
4.150645e-02
3.947499e-02
3.357945e-02
2.439692e-02
1.282624e-02
-4.871731e-17
2.539862e-16
8.929089e-03
1.698412e-02
2.337661e-02
2.748084e-02
2.889506e-02
2.748084e-02
2.337661e-02
1.698412e-02
8.929089e-03
-2.017811e-17
-8.051653e-17
3.777882e-03
7.185950e-03
9.890601e-03
1.162709e-02
1.222545e-02
1.162709e-02
9.890601e-03
7.185950e-03
3.777882e-03
-2.987853e-17
1.505064e-16
-1.903916e-03
-3.621459e-03
-4.984507e-03
-5.859636e-03
-6.161184e-03
-5.859636e-03
-4.984507e-03
-3.621459e-03
-1.903916e-03
-1.390577e-17
7.386433e-17
-7.318314e-03
-1.392024e-02
-1.915955e-02
-2.252339e-02
-2.368249e-02
-2.252339e-02
-1.915955e-02
-1.392024e-02
-7.318314e-03
1.676789e-16
-3.838204e-17
-1.170488e-02
-2.226397e-02
-3.064370e-02
-3.602381e-02
-3.787767e-02
-3.602381e-02
-3.064370e-02
-2.226397e-02
-1.170488e-02
-1.379662e-16
3.781901e-17
-1.444753e-02
-2.748080e-02
-3.782403e-02
-4.446479e-02
-4.675304e-02
-4.446479e-02
-3.782403e-02
-2.748080e-02
-1.444753e-02
-1.115178e-16
-2.701696e-17
-1.516106e-02
-2.883802e-02
-3.969210e-02
-4.666083e-02
-4.906209e-02
-4.666083e-02
-3.969210e-02
-2.883802e-02
-1.516106e-02
-8.121972e-18
5.649642e-17
-1.374527e-02
-2.614504e-02
-3.598552e-02
-4.230349e-02
-4.448052e-02
-4.230349e-02
-3.598552e-02
-2.614504e-02
-1.374527e-02
-2.548441e-17
-1.215898e-18
-1.039900e-02
-1.978005e-02
-2.722488e-02
-3.200475e-02
-3.365178e-02
-3.200475e-02
-2.722488e-02
-1.978005e-02
-1.039900e-02
1.778856e-16
8.172692e-17
-5.592209e-03
-1.063700e-02
-1.464056e-02
-1.721101e-02
-1.809672e-02
-1.721101e-02
-1.464056e-02
-1.063700e-02
-5.592209e-03
2.921189e-17
-1.252025e-16
1.431304e-16
-2.065042e-16
3.647645e-18
6.753239e-17
8.891018e-18
3.854858e-17
6.458753e-17
-7.650412e-19
3.428976e-16
-2.864478e-17
</DataArray>
<DataArray type="Float32" NumberOfComponents="1" Name="Mode4_159.15Hz" format="ascii">
-2.807369e-03
4.351845e-02
4.530769e-02
3.641031e-01
1.335490e-03
9.141926e-04
3.771797e-03
-3.536823e-03
-3.059365e-02
2.454331e-02
-2.116810e-01
-2.642879e-01
-1.980948e-17
-4.065432e-17
-4.084441e-17
-4.237825e-17
-3.438865e-17
-3.319958e-17
-6.239546e-18
5.512474e-18
1.204297e-17
1.811398e-02
-1.942704e-01
-2.976214e-17
-6.439867e-17
-7.135331e-17
-8.632751e-17
-5.680573e-17
-3.905337e-17
-2.031833e-17
-3.232427e-18
7.621045e-19
-2.148046e-04
-8.484088e-02
-3.125790e-17
-4.996738e-17
-9.525891e-17
-8.374201e-17
-8.791511e-17
-3.579815e-17
-3.715058e-17
-3.501884e-17
-2.572922e-17
-1.266113e-02
1.245982e-02
-3.233098e-17
-7.330783e-17
-8.245443e-17
-1.051874e-16
-6.110726e-17
-5.508072e-17
-3.864654e-17
-4.889066e-17
-4.829429e-17
-5.969004e-02
-4.945676e-02
-2.516580e-17
-5.464187e-17
-6.883451e-17