<VTKFile type="UnstructuredGrid" version="0.1" byte_order="LittleEndian">
<UnstructuredGrid>
<Piece NumberOfPoints="3321" NumberOfCells="3200">
<Points>
<DataArray type="Float32" NumberOfComponents="3" format="ascii">
0.000000e+00 0.000000e+00 0.000000e+00 
0.000000e+00 5.000000e-02 0.000000e+00 
0.000000e+00 1.000000e-01 0.000000e+00 
0.000000e+00 1.500000e-01 0.000000e+00 
0.000000e+00 2.000000e-01 0.000000e+00 
0.000000e+00 2.500000e-01 0.000000e+00 
0.000000e+00 3.000000e-01 0.000000e+00 
0.000000e+00 3.500000e-01 0.000000e+00 
0.000000e+00 4.000000e-01 0.000000e+00 
0.000000e+00 4.500000e-01 0.000000e+00 
0.000000e+00 5.000000e-01 0.000000e+00 
0.000000e+00 5.500000e-01 0.000000e+00 
0.000000e+00 6.000000e-01 0.000000e+00 
0.000000e+00 6.500000e-01 0.000000e+00 
0.000000e+00 7.000000e-01 0.000000e+00 
0.000000e+00 7.500000e-01 0.000000e+00 
0.000000e+00 8.000000e-01 0.000000e+00 
0.000000e+00 8.500000e-01 0.000000e+00 
0.000000e+00 9.000000e-01 0.000000e+00 
0.000000e+00 9.500000e-01 0.000000e+00 
0.000000e+00 1.000000e+00 0.000000e+00 
0.000000e+00 1.050000e+00 0.000000e+00 
0.000000e+00 1.100000e+00 0.000000e+00 
0.000000e+00 1.150000e+00 0.000000e+00 
0.000000e+00 1.200000e+00 0.000000e+00 
0.000000e+00 1.250000e+00 0.000000e+00 
0.000000e+00 1.300000e+00 0.000000e+00 
0.000000e+00 1.350000e+00 0.000000e+00 
0.000000e+00 1.400000e+00 0.000000e+00 
0.000000e+00 1.450000e+00 0.000000e+00 
0.000000e+00 1.500000e+00 0.000000e+00 
0.000000e+00 1.550000e+00 0.000000e+00 
0.000000e+00 1.600000e+00 0.000000e+00 
0.000000e+00 1.650000e+00 0.000000e+00 
0.000000e+00 1.700000e+00 0.000000e+00 
0.000000e+00 1.750000e+00 0.000000e+00 
0.000000e+00 1.800000e+00 0.000000e+00 
0.000000e+00 1.850000e+00 0.000000e+00 
0.000000e+00 1.900000e+00 0.000000e+00 
0.000000e+00 1.950000e+00 0.000000e+00 
0.000000e+00 2.000000e+00 0.000000e+00 
5.000000e-02 0.000000e+00 0.000000e+00 
5.000000e-02 5.000000e-02 0.000000e+00 
5.000000e-02 1.000000e-01 0.000000e+00 
5.000000e-02 1.500000e-01 0.000000e+00 
5.000000e-02 2.000000e-01 0.000000e+00 
5.000000e-02 2.500000e-01 0.000000e+00 
5.000000e-02 3.000000e-01 0.000000e+00 
5.000000e-02 3.500000e-01 0.000000e+00 
5.000000e-02 4.000000e-01 0.000000e+00 
5.000000e-02 4.500000e-01 0.000000e+00 
5.000000e-02 5.000000e-01 0.000000e+00 
5.000000e-02 5.500000e-01 0.000000e+00 
5.000000e-02 6.000000e-01 0.000000e+00 
5.000000e-02 6.500000e-01 0.000000e+00 
5.000000e-02 7.000000e-01 0.000000e+00 
5.000000e-02 7.500000e-01 0.000000e+00 
5.000000e-02 8.000000e-01 0.000000e+00 
5.000000e-02 8.500000e-01 0.000000e+00 
5.000000e-02 9.000000e-01 0.000000e+00 
5.000000e-02 9.500000e-01 0.000000e+00 
5.000000e-02 1.000000e+00 0.000000e+00 
5.000000e-02 1.050000e+00 0.000000e+00 
5.000000e-02 1.100000e+00 0.000000e+00 
5.000000e-02 1.150000e+00 0.000000e+00 
5.000000e-02 1.200000e+00 0.000000e+00 
5.000000e-02 1.250000e+00 0.000000e+00 
5.000000e-02 1.300000e+00 0.000000e+00 
5.000000e-02 1.350000e+00 0.000000e+00 
5.000000e-02 1.400000e+00 0.000000e+00 
5.000000e-02 1.450000e+00 0.000000e+00 
5.000000e-02 1.500000e+00 0.000000e+00 
5.000000e-02 1.550000e+00 0.000000e+00 
5.000000e-02 1.600000e+00 0.000000e+00 
5.000000e-02 1.650000e+00 0.000000e+00 
5.000000e-02 1.700000e+00 0.000000e+00 
5.000000e-02 1.750000e+00 0.000000e+00 
5.000000e-02 1.800000e+00 0.000000e+00 
5.000000e-02 1.850000e+00 0.000000e+00 
5.000000e-02 1.900000e+00 0.000000e+00 
5.000000e-02 1.950000e+00 0.000000e+00 
5.000000e-02 2.000000e+00 0.000000e+00 
1.000000e-01 0.000000e+00 0.000000e+00 
1.000000e-01 5.000000e-02 0.000000e+00 
1.000000e-01 1.000000e-01 0.000000e+00 
1.000000e-01 1.500000e-01 0.000000e+00 
1.000000e-01 2.000000e-01 0.000000e+00 
1.000000e-01 2.500000e-01 0.000000e+00 
1.000000e-01 3.000000e-01 0.000000e+00 
1.000000e-01 3.500000e-01 0.000000e+00 
1.000000e-01 4.000000e-01 0.000000e+00 
1.000000e-01 4.500000e-01 0.000000e+00 
1.000000e-01 5.000000e-01 0.000000e+00 
1.000000e-01 5.500000e-01 0.000000e+00 
1.000000e-01 6.000000e-01 0.000000e+00 
1.000000e-01 6.500000e-01 0.000000e+00 
1.000000e-01 7.000000e-01 0.000000e+00 
1.000000e-01 7.500000e-01 0.000000e+00 
1.000000e-01 8.000000e-01 0.000000e+00 
1.000000e-01 8.500000e-01 0.000000e+00 
1.000000e-01 9.000000e-01 0.000000e+00 
1.000000e-01 9.500000e-01 0.000000e+00 
1.000000e-01 1.000000e+00 0.000000e+00 
1.000000e-01 1.050000e+00 0.000000e+00 
1.000000e-01 1.100000e+00 0.000000e+00 
1.000000e-01 1.150000e+00 0.000000e+00 
1.000000e-01 1.200000e+00 0.000000e+00 
1.000000e-01 1.250000e+00 0.000000e+00 
1.000000e-01 1.300000e+00 0.000000e+00 
1.000000e-01 1.350000e+00 0.000000e+00 
1.000000e-01 1.400000e+00 0.000000e+00 
1.000000e-01 1.450000e+00 0.000000e+00 
1.000000e-01 1.500000e+00 0.000000e+00 
1.000000e-01 1.550000e+00 0.000000e+00 
1.000000e-01 1.600000e+00 0.000000e+00 
1.000000e-01 1.650000e+00 0.000000e+00 
1.000000e-01 1.700000e+00 0.000000e+00 
1.000000e-01 1.750000e+00 0.000000e+00 
1.000000e-01 1.800000e+00 0.000000e+00 
1.000000e-01 1.850000e+00 0.000000e+00 
1.000000e-01 1.900000e+00 0.000000e+00 
1.000000e-01 1.950000e+00 0.000000e+00 
1.000000e-01 2.000000e+00 0.000000e+00 
1.500000e-01 0.000000e+00 0.000000e+00 
1.500000e-01 5.000000e-02 0.000000e+00 
1.500000e-01 1.000000e-01 0.000000e+00 
1.500000e-01 1.500000e-01 0.000000e+00 
1.500000e-01 2.000000e-01 0.000000e+00 
1.500000e-01 2.500000e-01 0.000000e+00 
1.500000e-01 3.000000e-01 0.000000e+00 
1.500000e-01 3.500000e-01 0.000000e+00 
1.500000e-01 4.000000e-01 0.000000e+00 
1.500000e-01 4.500000e-01 0.000000e+00 
1.500000e-01 5.000000e-01 0.000000e+00 
1.500000e-01 5.500000e-01 0.000000e+00 
1.500000e-01 6.000000e-01 0.000000e+00 
1.500000e-01 6.500000e-01 0.000000e+00 
1.500000e-01 7.000000e-01 0.000000e+00 
1.500000e-01 7.500000e-01 0.000000e+00 
1.500000e-01 8.000000e-01 0.000000e+00 
1.500000e-01 8.500000e-01 0.000000e+00 
1.500000e-01 9.000000e-01 0.000000e+00 
1.500000e-01 9.500000e-01 0.000000e+00 
1.500000e-01 1.000000e+00 0.000000e+00 
1.500000e-01 1.050000e+00 0.000000e+00 
1.500000e-01 1.100000e+00 0.000000e+00 
1.500000e-01 1.150000e+00 0.000000e+00 
1.500000e-01 1.200000e+00 0.000000e+00 
1.500000e-01 1.250000e+00 0.000000e+00 
1.500000e-01 1.300000e+00 0.000000e+00 
1.500000e-01 1.350000e+00 0.000000e+00 
1.500000e-01 1.400000e+00 0.000000e+00 
1.500000e-01 1.450000e+00 0.000000e+00 
1.500000e-01 1.500000e+00 0.000000e+00 
1.500000e-01 1.550000e+00 0.000000e+00 
1.500000e-01 1.600000e+00 0.000000e+00 
1.500000e-01 1.650000e+00 0.000000e+00 
1.500000e-01 1.700000e+00 0.000000e+00 
1.500000e-01 1.750000e+00 0.000000e+00 
1.500000e-01 1.800000e+00 0.000000e+00 
1.500000e-01 1.850000e+00 0.000000e+00 
1.500000e-01 1.900000e+00 0.000000e+00 
1.500000e-01 1.950000e+00 0.000000e+00 
1.500000e-01 2.000000e+00 0.000000e+00 
2.000000e-01 0.000000e+00 0.000000e+00 
2.000000e-01 5.000000e-02 0.000000e+00 
2.000000e-01 1.000000e-01 0.000000e+00 
2.000000e-01 1.500000e-01 0.000000e+00 
2.000000e-01 2.000000e-01 0.000000e+00 
2.000000e-01 2.500000e-01 0.000000e+00 
2.000000e-01 3.000000e-01 0.000000e+00 
2.000000e-01 3.500000e-01 0.000000e+00 
2.000000e-01 4.000000e-01 0.000000e+00 
2.000000e-01 4.500000e-01 0.000000e+00 
2.000000e-01 5.000000e-01 0.000000e+00 
2.000000e-01 5.500000e-01 0.000000e+00 
2.000000e-01 6.000000e-01 0.000000e+00 
2.000000e-01 6.500000e-01 0.000000e+00 
2.000000e-01 7.000000e-01 0.000000e+00 
2.000000e-01 7.500000e-01 0.000000e+00 
2.000000e-01 8.000000e-01 0.000000e+00 
2.000000e-01 8.500000e-01 0.000000e+00 
2.000000e-01 9.000000e-01 0.000000e+00 
2.000000e-01 9.500000e-01 0.000000e+00 
2.000000e-01 1.000000e+00 0.000000e+00 
2.000000e-01 1.050000e+00 0.000000e+00 
2.000000e-01 1.100000e+00 0.000000e+00 
2.000000e-01 1.150000e+00 0.000000e+00 
2.000000e-01 1.200000e+00 0.000000e+00 
2.000000e-01 1.250000e+00 0.000000e+00 
2.000000e-01 1.300000e+00 0.000000e+00 
2.000000e-01 1.350000e+00 0.000000e+00 
2.000000e-01 1.400000e+00 0.000000e+00 
2.000000e-01 1.450000e+00 0.000000e+00 
2.000000e-01 1.500000e+00 0.000000e+00 
2.000000e-01 1.550000e+00 0.000000e+00 
2.000000e-01 1.600000e+00 0.000000e+00 
2.000000e-01 1.650000e+00 0.000000e+00 
2.000000e-01 1.700000e+00 0.000000e+00 
2.000000e-01 1.750000e+00 0.000000e+00 
2.000000e-01 1.800000e+00 0.000000e+00 
2.000000e-01 1.850000e+00 0.000000e+00 
2.000000e-01 1.900000e+00 0.000000e+00 
2.000000e-01 1.950000e+00 0.000000e+00 
2.000000e-01 2.000000e+00 0.000000e+00 
2.500000e-01 0.000000e+00 0.000000e+00 
2.500000e-01 5.000000e-02 0.000000e+00 
2.500000e-01 1.000000e-01 0.000000e+00 
2.500000e-01 1.500000e-01 0.000000e+00 
2.500000e-01 2.000000e-01 0.000000e+00 
2.500000e-01 2.500000e-01 0.000000e+00 
2.500000e-01 3.000000e-01 0.000000e+00 
2.500000e-01 3.500000e-01 0.000000e+00 
2.500000e-01 4.000000e-01 0.000000e+00 
2.500000e-01 4.500000e-01 0.000000e+00 
2.500000e-01 5.000000e-01 0.000000e+00 
2.500000e-01 5.500000e-01 0.000000e+00 
2.500000e-01 6.000000e-01 0.000000e+00 
2.500000e-01 6.500000e-01 0.000000e+00 
2.500000e-01 7.000000e-01 0.000000e+00 
2.500000e-01 7.500000e-01 0.000000e+00 
2.500000e-01 8.000000e-01 0.000000e+00 
2.500000e-01 8.500000e-01 0.000000e+00 
2.500000e-01 9.000000e-01 0.000000e+00 
2.500000e-01 9.500000e-01 0.000000e+00 
2.500000e-01 1.000000e+00 0.000000e+00 
2.500000e-01 1.050000e+00 0.000000e+00 
2.500000e-01 1.100000e+00 0.000000e+00 
2.500000e-01 1.150000e+00 0.000000e+00 
2.500000e-01 1.200000e+00 0.000000e+00 
2.500000e-01 1.250000e+00 0.000000e+00 
2.500000e-01 1.300000e+00 0.000000e+00 
2.500000e-01 1.350000e+00 0.000000e+00 
2.500000e-01 1.400000e+00 0.000000e+00 
2.500000e-01 1.450000e+00 0.000000e+00 
2.500000e-01 1.500000e+00 0.000000e+00 
2.500000e-01 1.550000e+00 0.000000e+00 
2.500000e-01 1.600000e+00 0.000000e+00 
2.500000e-01 1.650000e+00 0.000000e+00 
2.500000e-01 1.700000e+00 0.000000e+00 
2.500000e-01 1.750000e+00 0.000000e+00 
2.500000e-01 1.800000e+00 0.000000e+00 
2.500000e-01 1.850000e+00 0.000000e+00 
2.500000e-01 1.900000e+00 0.000000e+00 
[...]
<PointData>
<DataArray type="Float32" NumberOfComponents="1" Name="00 w (p)" format="ascii">
0.000000e+00
0.000000e+00
0.000000e+00
0.000000e+00
0.000000e+00
0.000000e+00
0.000000e+00
0.000000e+00
0.000000e+00
0.000000e+00
0.000000e+00
0.000000e+00
0.000000e+00
0.000000e+00
0.000000e+00
0.000000e+00
0.000000e+00
0.000000e+00
0.000000e+00
0.000000e+00
0.000000e+00
0.000000e+00
0.000000e+00
0.000000e+00
0.000000e+00
0.000000e+00
0.000000e+00
0.000000e+00
0.000000e+00
0.000000e+00
0.000000e+00
0.000000e+00
0.000000e+00
0.000000e+00
0.000000e+00
0.000000e+00
0.000000e+00
0.000000e+00
0.000000e+00
0.000000e+00
0.000000e+00
0.000000e+00
-2.634658e-04
-5.312630e-04
-7.938329e-04
-1.051353e-03
-1.302374e-03
-1.545112e-03
-1.778356e-03
-2.000516e-03
-2.210346e-03
-2.406498e-03
-2.587810e-03
-2.753147e-03
-2.901512e-03
-3.031985e-03
-3.143772e-03
-3.236183e-03
-3.308654e-03
-3.360739e-03
-3.392119e-03
-3.402599e-03
-3.392119e-03
-3.360739e-03
-3.308654e-03
-3.236183e-03
-3.143772e-03
-3.031985e-03
-2.901512e-03
-2.753147e-03
-2.587810e-03
-2.406498e-03
-2.210346e-03
-2.000516e-03
-1.778356e-03
-1.545112e-03
-1.302374e-03
-1.051353e-03
-7.938329e-04
-5.312630e-04
-2.634658e-04
0.000000e+00
0.000000e+00
-5.322756e-04
-1.061366e-03
-1.586060e-03
-2.100197e-03
-2.601270e-03
-3.086204e-03
-3.551914e-03
-3.995695e-03
-4.414729e-03
-4.806525e-03
-5.168635e-03
-5.498873e-03
-5.795192e-03
-6.055790e-03
-6.279057e-03
-6.463632e-03
-6.608376e-03
-6.712406e-03
-6.775078e-03
-6.796014e-03
-6.775078e-03
-6.712406e-03
-6.608376e-03
-6.463632e-03
-6.279057e-03
-6.055790e-03
-5.795192e-03
-5.498873e-03
-5.168635e-03
-4.806525e-03
-4.414729e-03
-3.995695e-03
-3.551914e-03
-3.086204e-03
-2.601270e-03
-2.100197e-03
-1.586060e-03
-1.061366e-03
-5.322756e-04
0.000000e+00
0.000000e+00
-7.981101e-04
-1.591583e-03
-2.375356e-03
-3.145092e-03
-3.895129e-03
-4.621033e-03
-5.318335e-03
-5.982698e-03
-6.610121e-03
-7.196700e-03
-7.738886e-03
-8.233319e-03
-8.676993e-03
-9.067167e-03
-9.401461e-03
-9.677813e-03
-9.894537e-03
-1.005029e-02
-1.014413e-02
-1.017548e-02
-1.014413e-02
-1.005029e-02
-9.894537e-03
-9.677813e-03
-9.401461e-03
-9.067167e-03
-8.676993e-03
-8.233319e-03
-7.738886e-03
-7.196700e-03
-6.610121e-03
-5.982698e-03
-5.318335e-03
-4.621033e-03
-3.895129e-03
-3.145092e-03
-2.375356e-03
-1.591583e-03
-7.981101e-04
0.000000e+00
0.000000e+00
-1.062379e-03
-2.118209e-03
-3.161063e-03
-4.184402e-03
-5.182038e-03
-6.147551e-03
-7.075035e-03
-7.958797e-03
-8.793373e-03
-9.573682e-03
-1.029490e-02
-1.095263e-02
-1.154282e-02
-1.206186e-02
-1.250655e-02
-1.287418e-02
-1.316247e-02
-1.336967e-02
-1.349450e-02
-1.353620e-02
-1.349450e-02
-1.336967e-02
-1.316247e-02
-1.287418e-02
-1.250655e-02
-1.206186e-02
-1.154282e-02
-1.095263e-02
-1.029490e-02
-9.573682e-03
-8.793373e-03
-7.958797e-03
-7.075035e-03
-6.147551e-03
-5.182038e-03
-4.184402e-03
-3.161063e-03
-2.118209e-03
-1.062379e-03
0.000000e+00
0.000000e+00
-1.324831e-03
-2.641131e-03
-3.941108e-03
-5.216721e-03
-6.460066e-03
-7.663504e-03
-8.819557e-03
-9.921110e-03
-1.096141e-02
-1.193404e-02
-1.283305e-02
-1.365291e-02
-1.438859e-02
-1.503557e-02
-1.558990e-02
-1.604814e-02
-1.640751e-02
-1.666579e-02
-1.682140e-02
-1.687337e-02
-1.682140e-02
-1.666579e-02
-1.640751e-02
-1.604814e-02
-1.558990e-02
-1.503557e-02
-1.438859e-02
-1.365291e-02
-1.283305e-02
-1.193404e-02
-1.096141e-02
-9.921110e-03
-8.819557e-03
-7.663504e-03
-6.460066e-03
-5.216721e-03
-3.941108e-03
-2.641131e-03
-1.324831e-03
0.000000e+00
0.000000e+00
-1.584842e-03
-3.159593e-03
-4.714529e-03
-6.240256e-03
-7.727354e-03
-9.166666e-03
-1.054933e-02
-1.186683e-02
-1.311106e-02
-1.427439e-02
-1.534966e-02
-1.633027e-02
-1.721019e-02
-1.798404e-02
-1.864704e-02
-1.919515e-02
-1.962498e-02
-1.993390e-02
-2.012001e-02
-2.018218e-02
-2.012001e-02
-1.993390e-02
-1.962498e-02
-1.919515e-02
-1.864704e-02
-1.798404e-02
-1.721019e-02
-1.633027e-02
-1.534966e-02
-1.427439e-02
-1.311106e-02
-1.186683e-02
-1.054933e-02
-9.166666e-03
-7.727354e-03
-6.240256e-03
-4.714529e-03
-3.159593e-03
-1.584842e-03
0.000000e+00
0.000000e+00
-1.842314e-03
-3.672729e-03
-5.480186e-03
-7.253535e-03
-8.981963e-03
-1.065482e-02
-1.226183e-02
-1.379310e-02
-1.523923e-02
-1.659132e-02
-1.784108e-02
-1.898081e-02
-2.000353e-02
-2.090295e-02
-2.167356e-02
-2.231061e-02
-2.281020e-02
-2.316925e-02
-2.338558e-02
-2.345783e-02
-2.338558e-02
-2.316925e-02
-2.281020e-02
-2.231061e-02
-2.167356e-02
-2.090295e-02
-2.000353e-02
-1.898081e-02
-1.784108e-02
-1.659132e-02
-1.523923e-02
-1.379310e-02
-1.226183e-02
-1.065482e-02
-8.981963e-03
-7.253535e-03
-5.480186e-03
-3.672729e-03
-1.842314e-03
0.000000e+00
0.000000e+00
-2.096710e-03
-4.179942e-03
-6.236901e-03
-8.255074e-03
-1.022204e-02
-1.212576e-02
-1.395452e-02
-1.569709e-02
-1.734277e-02
-1.888145e-02
-2.030365e-02
-2.160067e-02
-2.276452e-02
-2.378807e-02
-2.466502e-02
-2.538999e-02
-2.595852e-02
-2.636713e-02
-2.661330e-02
-2.669553e-02
-2.661330e-02
-2.636713e-02
-2.595852e-02
-2.538999e-02
-2.466502e-02
-2.378807e-02
-2.276452e-02
-2.160067e-02
-2.030365e-02
-1.888145e-02
-1.734277e-02
-1.569709e-02
-1.395452e-02
-1.212576e-02
-1.022204e-02
-8.255074e-03
-6.236901e-03
-4.179942e-03
-2.096710e-03
0.000000e+00
0.000000e+00
-2.347774e-03
-4.680392e-03
-6.983637e-03
-9.243360e-03
-1.144576e-02
-1.357729e-02
-1.562490e-02
-1.757599e-02
-1.941860e-02
-2.114138e-02
-2.273378e-02
-2.418599e-02
-2.548912e-02
-2.663515e-02
-2.761704e-02
-2.842876e-02
-2.906533e-02
-2.952283e-02
-2.979846e-02
-2.989053e-02
-2.979846e-02
-2.952283e-02
-2.906533e-02
-2.842876e-02
-2.761704e-02
-2.663515e-02
-2.548912e-02
-2.418599e-02
-2.273378e-02
-2.114138e-02
-1.941860e-02
-1.757599e-02
-1.562490e-02
-1.357729e-02
-1.144576e-02
-9.243360e-03
-6.983637e-03
-4.680392e-03
-2.347774e-03
0.000000e+00
0.000000e+00
-2.595074e-03
-5.173422e-03
-7.719240e-03
-1.021698e-02
-1.265129e-02
-1.500729e-02
-1.727049e-02
-1.942702e-02
-2.146362e-02
-2.336780e-02
-2.512785e-02
-2.673297e-02
-2.817329e-02
-2.943998e-02
-3.052525e-02
-3.142244e-02
-3.212603e-02
-3.263171e-02
-3.293636e-02
-3.303812e-02
-3.293636e-02
-3.263171e-02
-3.212603e-02
-3.142244e-02
-3.052525e-02
-2.943998e-02
-2.817329e-02
-2.673297e-02
-2.512785e-02
-2.336780e-02
-2.146362e-02
-1.942702e-02
-1.727049e-02
-1.500729e-02
-1.265129e-02
-1.021698e-02
-7.719240e-03
-5.173422e-03
-2.595074e-03
0.000000e+00
0.000000e+00
-2.838288e-03
-5.658258e-03
-8.442672e-03
-1.117445e-02
-1.383688e-02
-1.641361e-02
-1.888886e-02
-2.124742e-02
-2.347482e-02
-2.555738e-02
-2.748232e-02
-2.923780e-02
-3.081306e-02
-3.219841e-02
-3.338536e-02
-3.436659e-02
-3.513610e-02
-3.568914e-02
-3.602234e-02
-3.613363e-02
-3.602234e-02
-3.568914e-02
-3.513610e-02
-3.436659e-02
-3.338536e-02
-3.219841e-02
-3.081306e-02
-2.923780e-02
-2.748232e-02
-2.555738e-02
-2.347482e-02
-2.124742e-02
-1.888886e-02
-1.641361e-02
-1.383688e-02
-1.117445e-02
-8.442672e-03
-5.658258e-03
-2.838288e-03
0.000000e+00
0.000000e+00
-3.077031e-03
-6.134216e-03
-9.152825e-03
-1.211439e-02
-1.500073e-02
-1.779418e-02
-2.047758e-02
-2.303449e-02
-2.544919e-02
-2.770688e-02
-2.979368e-02
-3.169678e-02
-3.340450e-02
-3.490635e-02
-3.619309e-02
-3.725684e-02
-3.809105e-02
-3.869060e-02
-3.905181e-02
-3.917246e-02
-3.905181e-02
-3.869060e-02
-3.809105e-02
-3.725684e-02
-3.619309e-02
-3.490635e-02
-3.340450e-02
-3.169678e-02
-2.979368e-02
-2.770688e-02
-2.544919e-02
-2.303449e-02
-2.047758e-02
-1.779418e-02
-1.500073e-02
-1.211439e-02
-9.152825e-03
-6.134216e-03
-3.077031e-03
0.000000e+00
0.000000e+00
-3.310966e-03
-6.600567e-03
-9.848670e-03
-1.303536e-02
-1.614113e-02
-1.914692e-02
-2.203430e-02
-2.478555e-02
-2.738380e-02
-2.981308e-02
-3.205849e-02
-3.410623e-02
-3.594375e-02
-3.755973e-02
-3.894428e-02
-4.008887e-02
-4.098649e-02
-4.163160e-02
-4.202027e-02
-4.215009e-02
-4.202027e-02
-4.163160e-02
-4.098649e-02
-4.008887e-02
-3.894428e-02
-3.755973e-02
-3.594375e-02
-3.410623e-02
-3.205849e-02
-2.981308e-02
-2.738380e-02
-2.478555e-02
-2.203430e-02
-1.914692e-02
-1.614113e-02
-1.303536e-02
-9.848670e-03
-6.600567e-03
-3.310966e-03
0.000000e+00
0.000000e+00
-3.539733e-03
-7.056631e-03
-1.052915e-02
-1.393603e-02
-1.725636e-02
-2.046982e-02
-2.355667e-02
-2.649800e-02
-2.927573e-02
-3.187283e-02
-3.427335e-02
-3.646255e-02
-3.842699e-02
-4.015461e-02
-4.163479e-02
-4.285845e-02
-4.381807e-02
-4.450775e-02
-4.492326e-02
-4.506205e-02
-4.492326e-02
-4.450775e-02
-4.381807e-02
-4.285845e-02
-4.163479e-02
-4.015461e-02
-3.842699e-02
-3.646255e-02
-3.427335e-02
-3.187283e-02
-2.927573e-02
-2.649800e-02
-2.355667e-02
-2.046982e-02
-1.725636e-02
-1.393603e-02
-1.052915e-02
-7.056631e-03
-3.539733e-03
0.000000e+00
0.000000e+00
-3.762997e-03
-7.501715e-03
-1.119326e-02
-1.481501e-02
-1.834477e-02
-2.176089e-02
-2.504243e-02
-2.816924e-02
-3.112216e-02
-3.388304e-02
-3.643494e-02
-3.876219e-02
-4.085052e-02
-4.268708e-02
-4.426061e-02
-4.556143e-02
-4.658156e-02
-4.731473e-02
-4.775645e-02
-4.790398e-02
-4.775645e-02
-4.731473e-02
-4.658156e-02
-4.556143e-02
-4.426061e-02
-4.268708e-02
-4.085052e-02
-3.876219e-02
-3.643494e-02
-3.388304e-02
-3.112216e-02
-2.816924e-02
-2.504243e-02
-2.176089e-02
-1.834477e-02
-1.481501e-02
-1.119326e-02
-7.501715e-03
-3.762997e-03
0.000000e+00
0.000000e+00
-3.980419e-03
-7.935161e-03
-1.184000e-02
-1.567101e-02
-1.940471e-02
-2.301820e-02
-2.648933e-02
-2.979680e-02
-3.292030e-02
-3.584069e-02
-3.854001e-02
-4.100172e-02
-4.321068e-02
-4.515334e-02
-4.681777e-02
-4.819374e-02
-4.927280e-02
-5.004833e-02
-5.051556e-02
-5.067162e-02
-5.051556e-02
-5.004833e-02
-4.927280e-02
-4.819374e-02
-4.681777e-02
-4.515334e-02
-4.321068e-02
-4.100172e-02
-3.854001e-02
-3.584069e-02
-3.292030e-02
-2.979680e-02
-2.648933e-02
-2.301820e-02
-1.940471e-02
-1.567101e-02
-1.184000e-02
-7.935161e-03
-3.980419e-03
0.000000e+00
0.000000e+00
-4.191677e-03
-8.356311e-03
-1.246840e-02
-1.650273e-02
-2.043459e-02
-2.423985e-02
-2.789520e-02
-3.137819e-02
-3.466747e-02
-3.774283e-02
-4.058541e-02
-4.317774e-02
-4.550393e-02
-4.754968e-02
-4.930243e-02
-5.075141e-02
-5.188774e-02
-5.270442e-02
-5.319645e-02
-5.336079e-02
-5.319645e-02
-5.270442e-02
-5.188774e-02
-5.075141e-02
-4.930243e-02
-4.754968e-02
-4.550393e-02
-4.317774e-02
-4.058541e-02
-3.774283e-02
-3.466747e-02
-3.137819e-02
-2.789520e-02
-2.423985e-02
-2.043459e-02
-1.650273e-02
-1.246840e-02
-8.356311e-03
-4.191677e-03
0.000000e+00
0.000000e+00
-4.396448e-03
-8.764534e-03
-1.307750e-02
-1.730892e-02
-2.143285e-02
-2.542401e-02
-2.925792e-02
-3.291106e-02
-3.636100e-02
-3.958659e-02
-4.256802e-02
-4.528699e-02
-4.772680e-02
-4.987248e-02
-5.171084e-02
-5.323061e-02
-5.442243e-02
-5.527901e-02
-5.579506e-02
-5.596743e-02
-5.579506e-02
-5.527901e-02
-5.442243e-02
-5.323061e-02
-5.171084e-02
-4.987248e-02
-4.772680e-02
-4.528699e-02
-4.256802e-02
-3.958659e-02
-3.636100e-02
-3.291106e-02
-2.925792e-02
-2.542401e-02
-2.143285e-02
-1.730892e-02
-1.307750e-02
-8.764534e-03
-4.396448e-03
0.000000e+00
0.000000e+00
-4.594426e-03
-9.159213e-03
-1.366640e-02
-1.808836e-02
-2.239800e-02
-2.656889e-02
-3.057544e-02
-3.439307e-02
-3.799837e-02
-4.136920e-02
-4.448488e-02
-4.732627e-02
-4.987594e-02
-5.211823e-02
-5.403937e-02
-5.562756e-02
-5.687305e-02
-5.776819e-02
-5.830749e-02
-5.848762e-02
-5.830749e-02
-5.776819e-02
-5.687305e-02
-5.562756e-02
-5.403937e-02
-5.211823e-02
-4.987594e-02
-4.732627e-02
-4.448488e-02
-4.136920e-02
-3.799837e-02
-3.439307e-02
-3.057544e-02
-2.656889e-02
-2.239800e-02
-1.808836e-02
-1.366640e-02
-9.159213e-03
-4.594426e-03
0.000000e+00
0.000000e+00
-4.785311e-03
-9.539753e-03
-1.423420e-02
-1.883989e-02
-2.332857e-02
-2.767275e-02
-3.184575e-02
-3.582199e-02
-3.957707e-02
-4.308795e-02
-4.633306e-02
-4.929250e-02
-5.194809e-02
-5.428354e-02
-5.628448e-02
-5.793866e-02
-5.923589e-02
-6.016822e-02
-6.072991e-02
-6.091753e-02
-6.072991e-02
-6.016822e-02
-5.923589e-02
-5.793866e-02
-5.628448e-02
-5.428354e-02
-5.194809e-02
-4.929250e-02
-4.633306e-02
-4.308795e-02
-3.957707e-02
-3.582199e-02
-3.184575e-02
-2.767275e-02
-2.332857e-02
-1.883989e-02
-1.423420e-02
-9.539753e-03
-4.785311e-03
0.000000e+00
0.000000e+00
-4.968814e-03
-9.905576e-03
-1.478004e-02
-1.956234e-02
-2.422316e-02
-2.873392e-02
-3.306694e-02
-3.719566e-02
-4.109473e-02
-4.474023e-02
-4.810978e-02
-5.118270e-02
-5.394013e-02
-5.636512e-02
-5.844280e-02
-6.016039e-02
-6.150737e-02
-6.247544e-02
-6.305868e-02
-6.325349e-02
-6.305868e-02
-6.247544e-02
-6.150737e-02
-6.016039e-02
-5.844280e-02
-5.636512e-02
-5.394013e-02
-5.118270e-02
-4.810978e-02
-4.474023e-02
-4.109473e-02
-3.719566e-02
-3.306694e-02
-2.873392e-02
-2.422316e-02
-1.956234e-02
-1.478004e-02
-9.905576e-03
-4.968814e-03
0.000000e+00
0.000000e+00
-5.144658e-03
-1.025613e-02
-1.530310e-02
-2.025465e-02
-2.508041e-02
-2.975080e-02
-3.423716e-02
-3.851199e-02
-4.254905e-02
-4.632356e-02
-4.981235e-02
-5.299402e-02
-5.584901e-02
-5.835982e-02
-6.051102e-02
-6.228940e-02
-6.368404e-02
-6.468638e-02
-6.529025e-02
-6.549196e-02
-6.529025e-02
-6.468638e-02
-6.368404e-02
-6.228940e-02
-6.051102e-02
-5.835982e-02
-5.584901e-02
-5.299402e-02
-4.981235e-02
-4.632356e-02
-4.254905e-02
-3.851199e-02
-3.423716e-02
-2.975080e-02
-2.508041e-02
-2.025465e-02
-1.530310e-02
-1.025613e-02
-5.144658e-03
0.000000e+00
0.000000e+00
-5.312576e-03
-1.059088e-02
-1.580259e-02
-2.091574e-02
-2.589902e-02
-3.072184e-02
-3.535464e-02
-3.976899e-02
-4.393781e-02
-4.783551e-02
-5.143818e-02
-5.472368e-02
-5.767187e-02
-6.026462e-02
-6.248603e-02
-6.432245e-02
-6.576261e-02
-6.679766e-02
-6.742124e-02
-6.762953e-02
-6.742124e-02
-6.679766e-02
-6.576261e-02
-6.432245e-02
-6.248603e-02
-6.026462e-02
-5.767187e-02
-5.472368e-02
-5.143818e-02
-4.783551e-02
-4.393781e-02
-3.976899e-02
-3.535464e-02
-3.072184e-02
-2.589902e-02
-2.091574e-02
-1.580259e-02
-1.059088e-02
-5.312576e-03
0.000000e+00
0.000000e+00
-5.472312e-03
-1.090933e-02
-1.627773e-02
-2.154463e-02
-2.667774e-02
-3.164558e-02
-3.641767e-02
-4.096475e-02
-4.525892e-02
-4.927381e-02
-5.298479e-02
-5.636909e-02
-5.940591e-02
-6.207662e-02
-6.436482e-02
-6.625646e-02
-6.773991e-02
-6.880608e-02
-6.944841e-02
-6.966296e-02
-6.944841e-02
-6.880608e-02
-6.773991e-02
-6.625646e-02
-6.436482e-02
-6.207662e-02
-5.940591e-02
-5.636909e-02
-5.298479e-02
-4.927381e-02
-4.525892e-02
-4.096475e-02
-3.641767e-02
-3.164558e-02
-2.667774e-02
-2.154463e-02
-1.627773e-02
-1.090933e-02
-5.472312e-03
0.000000e+00
0.000000e+00
-5.623625e-03
-1.121097e-02
-1.672782e-02
-2.214036e-02
-2.741540e-02
-3.252060e-02
-3.742464e-02
-4.209745e-02
-4.651035e-02
-5.063626e-02
-5.444985e-02
-5.792772e-02
-6.104851e-02
-6.379307e-02
-6.614454e-02
-6.808847e-02
-6.961295e-02
-7.070860e-02
-7.136869e-02
-7.158917e-02
-7.136869e-02
-7.070860e-02
-6.961295e-02
-6.808847e-02
-6.614454e-02
-6.379307e-02
-6.104851e-02
-5.792772e-02
-5.444985e-02
-5.063626e-02
-4.651035e-02
-4.209745e-02
-3.742464e-02
-3.252060e-02
-2.741540e-02
-2.214036e-02
-1.672782e-02
-1.121097e-02
-5.623625e-03
0.000000e+00
0.000000e+00
-5.766283e-03
-1.149537e-02
-1.715217e-02
-2.270201e-02
-2.811087e-02
-3.334557e-02
-3.837403e-02
-4.316537e-02
-4.769022e-02
-5.192079e-02
-5.583112e-02
-5.939722e-02
-6.259717e-02
-6.541135e-02
-6.782247e-02
-6.981572e-02
-7.137886e-02
-7.250231e-02
-7.317914e-02
-7.340522e-02
-7.317914e-02
-7.250231e-02
-7.137886e-02
-6.981572e-02
-6.782247e-02
-6.541135e-02
-6.259717e-02
-5.939722e-02
-5.583112e-02
-5.192079e-02
-4.769022e-02
-4.316537e-02
-3.837403e-02
-3.334557e-02
-2.811087e-02
-2.270201e-02
-1.715217e-02
-1.149537e-02
-5.766283e-03
0.000000e+00
0.000000e+00
-5.900071e-03
-1.176209e-02
-1.755013e-02
-2.322874e-02
-2.876309e-02
-3.411925e-02
-3.926437e-02
-4.416689e-02
-4.879672e-02
-5.312545e-02
-5.712651e-02
-6.077534e-02
-6.404954e-02
-6.692901e-02
-6.939607e-02
-7.143556e-02
-7.303498e-02
-7.418448e-02
-7.487702e-02
-7.510834e-02
-7.487702e-02
-7.418448e-02
-7.303498e-02
-7.143556e-02
-6.939607e-02
-6.692901e-02
-6.404954e-02
-6.077534e-02
-5.712651e-02
-5.312545e-02
-4.879672e-02
-4.416689e-02
-3.926437e-02
-3.411925e-02
-2.876309e-02
-2.322874e-02
-1.755013e-02
-1.176209e-02
-5.900071e-03
0.000000e+00
0.000000e+00
-6.024785e-03
-1.201071e-02
-1.792110e-02
-2.371974e-02
-2.937107e-02
-3.484046e-02
-4.009433e-02
-4.510048e-02
-4.982817e-02
-5.424840e-02
-5.833403e-02
-6.205999e-02
-6.540339e-02
-6.834373e-02
-7.086293e-02
-7.294554e-02
-7.457876e-02
-7.575256e-02
-7.645974e-02
-7.669595e-02
-7.645974e-02
-7.575256e-02
-7.457876e-02
-7.294554e-02
-7.086293e-02
-6.834373e-02
-6.540339e-02
-6.205999e-02
-5.833403e-02
-5.424840e-02
-4.982817e-02
-4.510048e-02
-4.009433e-02
-3.484046e-02
-2.937107e-02
-2.371974e-02
-1.792110e-02
-1.201071e-02
-6.024785e-03
0.000000e+00
0.000000e+00
-6.140234e-03
-1.224086e-02
-1.826451e-02
-2.417427e-02
-2.993390e-02
-3.550808e-02
-4.086264e-02
-4.596471e-02
-5.078300e-02
-5.528792e-02
-5.945185e-02
-6.324920e-02
-6.665668e-02
-6.965336e-02
-7.222084e-02
-7.434335e-02
-7.600787e-02
-7.720416e-02
-7.792489e-02
-7.816562e-02
-7.792489e-02
-7.720416e-02
-7.600787e-02
-7.434335e-02
-7.222084e-02
-6.965336e-02
-6.665668e-02
-6.324920e-02
-5.945185e-02
-5.528792e-02
-5.078300e-02
-4.596471e-02
-4.086264e-02
-3.550808e-02
-2.993390e-02
-2.417427e-02
-1.826451e-02
-1.224086e-02
-6.140234e-03
0.000000e+00
0.000000e+00
-6.246243e-03
-1.245220e-02
-1.857984e-02
-2.459163e-02
-3.045069e-02
-3.612112e-02
-4.156812e-02
-4.675828e-02
-5.165975e-02
-5.624245e-02
-6.047826e-02
-6.434118e-02
-6.780748e-02
-7.085590e-02
-7.346770e-02
-7.562686e-02
-7.732011e-02
-7.853706e-02
-7.927023e-02
-7.951512e-02
-7.927023e-02
-7.853706e-02
-7.732011e-02
-7.562686e-02
-7.346770e-02
-7.085590e-02
-6.780748e-02
-6.434118e-02
-6.047826e-02
-5.624245e-02
-5.165975e-02
-4.675828e-02
-4.156812e-02
-3.612112e-02
-3.045069e-02
-2.459163e-02
-1.857984e-02
-1.245220e-02
-6.246243e-03
0.000000e+00
0.000000e+00
-6.342650e-03
-1.264439e-02
-1.886661e-02
-2.497118e-02
-3.092068e-02
-3.667863e-02
-4.220970e-02
-4.747996e-02
-5.245709e-02
-5.711052e-02
-6.141171e-02
-6.533425e-02
-6.885405e-02
-7.194951e-02
-7.460163e-02
-7.679411e-02
-7.851350e-02
-7.974923e-02
-8.049372e-02
-8.074239e-02
-8.049372e-02
-7.974923e-02
-7.851350e-02
-7.679411e-02
-7.460163e-02
-7.194951e-02
-6.885405e-02
-6.533425e-02
-6.141171e-02
-5.711052e-02
-5.245709e-02
-4.747996e-02
-4.220970e-02
-3.667863e-02
-3.092068e-02
-2.497118e-02
-1.886661e-02
-1.264439e-02
-6.342650e-03
0.000000e+00
0.000000e+00
-6.429307e-03
-1.281715e-02
-1.912438e-02
-2.531236e-02
-3.134314e-02
-3.717976e-02
-4.278640e-02
-4.812867e-02
-5.317379e-02
-5.789081e-02
-6.225076e-02
-6.622689e-02
-6.979479e-02
-7.293254e-02
-7.562089e-02
-7.784333e-02
-7.958621e-02
-8.083883e-02
-8.159348e-02
-8.184555e-02
-8.159348e-02
-8.083883e-02
-7.958621e-02
-7.784333e-02
-7.562089e-02
-7.293254e-02
-6.979479e-02
-6.622689e-02
-6.225076e-02
-5.789081e-02
-5.317379e-02
-4.812867e-02
-4.278640e-02
-3.717976e-02
-3.134314e-02
-2.531236e-02
-1.912438e-02
-1.281715e-02
-6.429307e-03
0.000000e+00
0.000000e+00
-6.506084e-03
-1.297020e-02
-1.935276e-02
-2.561463e-02
-3.171744e-02
-3.762375e-02
-4.329734e-02
-4.870341e-02
-5.380878e-02
-5.858212e-02
-6.299414e-02
-6.701775e-02
-7.062826e-02
-7.380348e-02
-7.652394e-02
-7.877291e-02
-8.053661e-02
-8.180418e-02
-8.256785e-02
-8.282293e-02
-8.256785e-02
-8.180418e-02
-8.053661e-02
-7.877291e-02
-7.652394e-02
-7.380348e-02
-7.062826e-02
-6.701775e-02
-6.299414e-02
-5.858212e-02
-5.380878e-02
-4.870341e-02
-4.329734e-02
-3.762375e-02
-3.171744e-02
-2.561463e-02
-1.935276e-02
-1.297020e-02
-6.506084e-03
0.000000e+00
0.000000e+00
-6.572863e-03
-1.310333e-02
-1.955140e-02
-2.587754e-02
-3.204298e-02
-3.800992e-02
-4.374175e-02
-4.920330e-02
-5.436108e-02
-5.918341e-02
-6.364072e-02
-6.770563e-02
-7.135319e-02
-7.456101e-02
-7.730938e-02
-7.958144e-02
-8.136324e-02
-8.264382e-02
-8.341533e-02
-8.367303e-02
-8.341533e-02
-8.264382e-02
-8.136324e-02
-7.958144e-02
-7.730938e-02
-7.456101e-02
-7.135319e-02
-6.770563e-02
-6.364072e-02
-5.918341e-02
-5.436108e-02
-4.920330e-02
-4.374175e-02
-3.800992e-02